# vtk DataFile Version 2.0
Init conditions for Lacey thermal conduction shocks
ASCII
DATASET STRUCTURED_POINTS
DIMENSIONS 1024 1 1
SPACING 0.00039100684261974585 1 1
ORIGIN 0 0 0
POINT_DATA 1024
SCALARS rho_ float 1
LOOKUP_TABLE default
1.000010000100001
1.000011052610787
1.0000135964218702
1.000017587091109
1.0000229806143686
1.0000297334242831
1.0000378023890757
1.0000471448114312
1.0000577184274255
1.000069481405506
1.0000823923455233
1.0000964102778125
1.000111494662325
1.000127605387805
1.0001447027710146
1.0001627475560024
1.000181700913417
1.000201524439862
1.0002221801572937
1.0002436305124567
1.000265838376363
1.0002887670438039
1.000312380232903
1.0003366420847035
1.0003615171627884
1.0003869704529385
1.0004129673628188
1.0004394737216995
1.0004664557802059
1.0004938802100987
1.0005217141040816
1.000549924975639
1.0005784807588975
1.0006073498085142
1.00063650089959
1.0006659032276066
1.0006955264083852
1.0007253404780692
1.0007553158931246
1.0007854235303655
1.0008156346869932
1.0008459210806586
1.0008762548495382
1.0009066085524305
1.0009369551688647
1.0009672680992272
1.0009975211649011
1.0010276886084202
1.0010577450936335
1.001087665705885
1.0011174259522013
1.0011470017614927
1.0011763694847615
1.0012055058953215
1.0012343881890235
1.0012629939844917
1.0012913013233629
1.0013192886705358
1.0013469349144242
1.001374219367215
1.0014011217651315
1.0014276222686989
1.0014537014630154
1.001479340358024
1.0015045203887867
1.00152922341576
1.0015534317250723
1.0015771280287995
1.0016002954652439
1.0016229175992075
1.0016449784222692
1.0016664623530567
1.001687354237517
1.0017076393491866
1.0017273033894534
1.0017463324878215
1.0017647132021668
1.0017824325189906
1.0017994778536679
1.0018158370506907
1.0018314983839056
1.0018464505567446
1.0018606827024517
1.0018741843843
1.0018869455958044
1.001898956760925
1.0019102087342655
1.0019206928012596
1.0019304006783538
1.0019393245131782
1.0019474568847115
1.0019547908034336
1.0019613197114734
1.001967037482743
1.0019719384230652
1.0019760172702898
1.0019792691944018
1.001981689797616
1.001983275114466
1.0019840216118783
1.0019839261892396
1.0019829861784515
1.0019811993439744
1.0019785638828622
1.0019750784247843
1.0019707420320385
1.0019655541995514
1.0019595148548686
1.0019526243581343
1.0019448835020592
1.0019362935118779
1.001926856045295
1.00191657319242
1.0019054474756937
1.0018934818497995
1.0018806797015687
1.0018670448498714
1.001852581545499
1.0018372944710365
1.0018211887407222
1.0018042699003005
1.0017865439268618
1.0017680172286751
1.0017486966450087
1.0017285894459433
1.0017077033321755
1.0016860464348105
1.0016636273151491
1.0016404549644644
1.0016165388037692
1.0015918886835786
1.0015665148836612
1.0015404281127867
1.001513639508462
1.0014861606366656
1.0014580034915712
1.0014291804952675
1.001399704497472
1.0013695887752394
1.0013388470326643
1.0013074934005808
1.0012755424362563
1.0012430091230835
1.0012099088702673
1.00117625751251
1.0011420713096935
1.0011073669465604
1.0010721615323932
1.0010364726006924
1.0010003181088543
1.0009637164378495
1.0009266863919022
1.000889247198169
1.0008514185064208
1.000813220388729
1.0007746733391498
1.0007357982734166
1.0006966165286344
1.000657149862979
1.000617420455403
1.000577450905345
1.000537264232449
1.000496883876289
1.000456333696102
1.00041563797053
1.0003748213973704
1.0003339090933396
1.0002929265938434
1.0002518998527616
1.0002108552422453
1.0001698195525255
1.0001288199917362
1.0000878841857541
1.000047040178051
1.0000063164295643
0.9999657418185843
0.9999253456406596
0.9998851576085196
0.9998452078520206
0.9998055269181082
0.9997661457708038
0.9997270957912124
0.9996884087775537
0.9996501169452184
0.9996122529268483
0.9995748497724424
0.999537940949491
0.9995015603431383
0.9994657422563713
0.999430521410242
0.9993959329441175
0.9993620124159649
0.9993287958026671
0.9992963195003739
0.9992646203248874
0.9992337355120847
0.9992037027183771
0.9991745600212074
0.9991463459195886
0.9991190993346805
0.99909285961041
0.9990676665141351
0.9990435602373504
0.9990205813964409
0.9989987710334797
0.9989781706170753
0.9989588220432686
0.998940767636477
0.9989240501504935
0.9989087127695366
0.9988947991093559
0.9988823532183901
0.9988714195789874
0.9988620431086773
0.9988542691615079
0.9988481435294394
0.9988437124438044
0.9988410225768282
0.9988401210432166
0.9988410554018093
0.9988438736573028
0.9988486242620412
0.9988553561178803
0.9988641185781232
0.99887496144953
0.9988879349944059
0.9989030899327634
0.998920477444567
0.9989401491720572
0.9989621572221569
0.9989865541689646
0.9990133930563302
0.9990427274005221
0.9990746111929816
0.9991090989031706
0.9991462454815119
0.9991861063624251
0.9992287374674602
0.9992741952085294
0.9993225364912415
0.9993738187183385
0.999428099793239
0.9994854381236868
0.9995458926255111
0.9996095227264976
0.9996763883703746
0.999746550020913
0.9998200686661466
0.9998970058227142
0.9999774235403223
1.0000613844063346
1.000148951550491
1.0002401886497547
1.0003351599332937
1.0004339301875989
1.0005365647617386
1.000643129572756
1.0007536911112094
1.0008683164468588
1.0009870732345036
1.0011100297199709
1.00123725474626
1.0013688177598465
1.0015047888171456
1.0016452385911414
1.0017902383781851
1.0019398601049634
1.0020941763356404
1.0022532602791796
1.0024171857968474
1.0025860274098999
1.0027598603074601
1.0029387603545872
1.0031228041005427
1.0033120687872563
1.0035066323579966
1.0037065734662494
1.0039119714848095
1.0041229065150896
1.0043394593966493
1.0045617117169505
1.0047897458213437
1.005023644823288
1.0052634926148123
1.0055093738772194
1.0057613740920426
1.0060195795522546
1.0062840773737376
1.006554955507019
1.006832302749278
1.0071162087566292
1.0074067640566886
1.0077040600614275
1.0080081890803227
1.0083192443338047
1.008637319967016
1.0089625110638822
1.0092949136615021
1.0096346247648673
1.0099817423619155
1.0103363654389246
1.0106985939962578
1.011068529064464
1.011446272720743
1.011831928105784
1.0122255994409841
1.0126273920460578
1.013037412357042
1.01345576794471
1.0138825675334013
1.014317921020276
1.014761939495004
1.0152147352599024
1.0156764218505236
1.0161471140567129
1.0166269279441402
1.0171159808763202
1.0176143915371307
1.0181222799538434
1.0186397675206735
1.019166977022868
1.0197040326613387
1.0202510600778565
1.0208081863808212
1.021375540171615
1.0219532515715621
1.0225414522495015
1.0231402754499939
1.023749856022171
1.024370330449253
1.0250018368787412
1.0256456545912072
1.0263035138624617
1.0269757093878045
1.0276625270690978
1.0283642506948436
1.0290811619884415
1.0298135406564415
1.0305616644367503
1.0313258091467397
1.032106248731217
1.032903255310214
1.0337170992265463
1.0345480490931098
1.035396371839864
1.0362623327604665
1.03714619555852
1.0380482223933856
1.0389686739255313
1.0399078093613723
1.0408658864975644
1.041843161764718
1.0428398902704876
1.043856325842007
1.0448927210676275
1.0459493273379261
1.0470263948859428
1.0481241728266162
1.0492429091953723
1.0503828509858386
1.0515442441866398
1.0527273338172407
1.0539323639627982
1.0551595778079847
1.0564092176697455
1.0576815250289497
1.0589767405608985
1.0602951041646482
1.0616368549911095
1.0630022314698828
1.064391471334786
1.0658048116480345
1.067242488823031
1.0687047386457147
1.0701917962944354
1.071703896358297
1.0732412728539298
1.0748041592406388
1.0763927884338809
1.0780073928170222
1.0796482042513171
1.081315454084064
1.0830093731548747
1.0847301918000085
1.0864781398547065
1.0882534466534697
1.0900563410282198
1.0918870513042789
1.0937458052941003
1.0956328302886875
1.0975483530466306
1.0994925997806873
1.1014657961418364
1.1034681672007307
1.105499937426466
1.10756133066259
1.1096525701002675
1.111776223684858
1.113935440541995
1.116129968846103
1.1183595759431944
1.120624070258574
1.122923301914161
1.1252571633895458
1.1276255902268473
1.1300285617795462
1.1324661020056248
1.1349382803054486
1.1374452124049952
1.1399870612851577
1.1425640381580267
1.1451764034911904
1.1478244680812906
1.1505085941782185
1.1532291966615518
1.1559867442710061
1.1587817608929027
1.1616148269048598
1.164486580581159
1.167397719561482
1.170349002385973
1.1733412500998677
1.1763753479312193
1.1794522470455773
1.1825729663817997
1.1857385945735492
1.1889502919613995
1.19220929270089
1.1955169069723046
1.1988745232984164
1.2022836109769413
1.2057457226349855
1.2092624969133365
1.2128356612890832
1.2164670350456979
1.220158532400442
1.2239121657997256
1.2277300493938719
1.231614402703654
1.2355675544919196
1.2395919468546848
1.2436901395471978
1.2478648145617117
1.252118780975035
1.2564549800853726
1.2608764908595513
1.265386535713422
1.2699884866501066
1.274685871782781
1.2794823822709072
1.2843818797012487
1.2893884039476544
1.2945061815464938
1.2997396346278138
1.3050933904457687
1.3105722915557165
1.3161814066895854
1.3219260423857608
1.3278117554348552
1.3338443662083754
1.3400299729435385
1.3463749670643903
1.3528860496270183
1.3596636018009864
1.366787738297086
1.3741773507538022
1.3817725609196632
1.3895371921854667
1.3974600655723213
1.4055564284739925
1.4138695062737006
1.4224722026190653
1.4314690156989627
1.4409982866263396
1.4512349540941594
1.7777777777777777
1.7777777777777777
1.7777777777777777
1.7777777777777777
1.7777777777777777
1.7777777777777777
1.7777777777777777
1.7777777777777777
1.7777777777777777
1.7777777777777777
1.7777777777777777
1.7777777777777777
1.7777777777777777
1.7777777777777777
1.7777777777777777
1.7777777777777777
1.7777777777777777
1.7777777777777777
1.7777777777777777
1.7777777777777777
1.7777777777777777
1.7777777777777777
1.7777777777777777
1.7777777777777777
1.7777777777777777
1.7777777777777777
1.7777777777777777
1.7777777777777777
1.7777777777777777
1.7777777777777777
1.7777777777777777
1.7777777777777777
1.7777777777777777
1.7777777777777777
1.7777777777777777
1.7777777777777777
1.7777777777777777
1.7777777777777777
1.7777777777777777
1.7777777777777777
1.7777777777777777
1.7777777777777777
1.7777777777777777
1.7777777777777777
1.7777777777777777
1.7777777777777777
1.7777777777777777
1.7777777777777777
1.7777777777777777
1.7777777777777777
1.7777777777777777
1.7777777777777777
1.7777777777777777
1.7777777777777777
1.7777777777777777
1.7777777777777777
1.7777777777777777
1.7777777777777777
1.7777777777777777
1.7777777777777777
1.7777777777777777
1.7777777777777777
1.7777777777777777
1.7777777777777777
1.7777777777777777
1.7777777777777777
1.7777777777777777
1.7777777777777777
1.7777777777777777
1.7777777777777777
1.7777777777777777
1.7777777777777777
1.7777777777777777
1.7777777777777777
1.7777777777777777
1.7777777777777777
1.7777777777777777
1.7777777777777777
1.7777777777777777
1.7777777777777777
1.7777777777777777
1.7777777777777777
1.7777777777777777
1.7777777777777777
1.7777777777777777
1.7777777777777777
1.7777777777777777
1.7777777777777777
1.7777777777777777
1.7777777777777777
1.7777777777777777
1.7777777777777777
1.7777777777777777
1.7777777777777777
1.7777777777777777
1.7777777777777777
1.7777777777777777
1.7777777777777777
1.7777777777777777
1.7777777777777777
1.7777777777777777
1.7777777777777777
1.7777777777777777
1.7777777777777777
1.7777777777777777
1.7777777777777777
1.7777777777777777
1.7777777777777777
1.7777777777777777
1.7777777777777777
1.7777777777777777
1.7777777777777777
1.7777777777777777
1.7777777777777777
1.7777777777777777
1.7777777777777777
1.7777777777777777
1.7777777777777777
1.7777777777777777
1.7777777777777777
1.7777777777777777
1.7777777777777777
1.7777777777777777
1.7777777777777777
1.7777777777777777
1.7777777777777777
1.7777777777777777
1.7777777777777777
1.7777777777777777
1.7777777777777777
1.7777777777777777
1.7777777777777777
1.7777777777777777
1.7777777777777777
1.7777777777777777
1.7777777777777777
1.7777777777777777
1.7777777777777777
1.7777777777777777
1.7777777777777777
1.7777777777777777
1.7777777777777777
1.7777777777777777
1.7777777777777777
1.7777777777777777
1.7777777777777777
1.7777777777777777
1.7777777777777777
1.7777777777777777
1.7777777777777777
1.7777777777777777
1.7777777777777777
1.7777777777777777
1.7777777777777777
1.7777777777777777
1.7777777777777777
1.7777777777777777
1.7777777777777777
1.7777777777777777
1.7777777777777777
1.7777777777777777
1.7777777777777777
1.7777777777777777
1.7777777777777777
1.7777777777777777
1.7777777777777777
1.7777777777777777
1.7777777777777777
1.7777777777777777
1.7777777777777777
1.7777777777777777
1.7777777777777777
1.7777777777777777
1.7777777777777777
1.7777777777777777
1.7777777777777777
1.7777777777777777
1.7777777777777777
1.7777777777777777
1.7777777777777777
1.7777777777777777
1.7777777777777777
1.7777777777777777
1.7777777777777777
1.7777777777777777
1.7777777777777777
1.7777777777777777
1.7777777777777777
1.7777777777777777
1.7777777777777777
1.7777777777777777
1.7777777777777777
1.7777777777777777
1.7777777777777777
1.7777777777777777
1.7777777777777777
1.7777777777777777
1.7777777777777777
1.7777777777777777
1.7777777777777777
1.7777777777777777
1.7777777777777777
1.7777777777777777
1.7777777777777777
1.7777777777777777
1.7777777777777777
1.7777777777777777
1.7777777777777777
1.7777777777777777
1.7777777777777777
1.7777777777777777
1.7777777777777777
1.7777777777777777
1.7777777777777777
1.7777777777777777
1.7777777777777777
1.7777777777777777
1.7777777777777777
1.7777777777777777
1.7777777777777777
1.7777777777777777
1.7777777777777777
1.7777777777777777
1.7777777777777777
1.7777777777777777
1.7777777777777777
1.7777777777777777
1.7777777777777777
1.7777777777777777
1.7777777777777777
1.7777777777777777
1.7777777777777777
1.7777777777777777
1.7777777777777777
1.7777777777777777
1.7777777777777777
1.7777777777777777
1.7777777777777777
1.7777777777777777
1.7777777777777777
1.7777777777777777
1.7777777777777777
1.7777777777777777
1.7777777777777777
1.7777777777777777
1.7777777777777777
1.7777777777777777
1.7777777777777777
1.7777777777777777
1.7777777777777777
1.7777777777777777
1.7777777777777777
1.7777777777777777
1.7777777777777777
1.7777777777777777
1.7777777777777777
1.7777777777777777
1.7777777777777777
1.7777777777777777
1.7777777777777777
1.7777777777777777
1.7777777777777777
1.7777777777777777
1.7777777777777777
1.7777777777777777
1.7777777777777777
1.7777777777777777
1.7777777777777777
1.7777777777777777
1.7777777777777777
1.7777777777777777
1.7777777777777777
1.7777777777777777
1.7777777777777777
1.7777777777777777
1.7777777777777777
1.7777777777777777
1.7777777777777777
1.7777777777777777
1.7777777777777777
1.7777777777777777
1.7777777777777777
1.7777777777777777
1.7777777777777777
1.7777777777777777
1.7777777777777777
1.7777777777777777
1.7777777777777777
1.7777777777777777
1.7777777777777777
1.7777777777777777
1.7777777777777777
1.7777777777777777
1.7777777777777777
1.7777777777777777
1.7777777777777777
1.7777777777777777
1.7777777777777777
1.7777777777777777
1.7777777777777777
1.7777777777777777
1.7777777777777777
1.7777777777777777
1.7777777777777777
1.7777777777777777
1.7777777777777777
1.7777777777777777
1.7777777777777777
1.7777777777777777
1.7777777777777777
1.7777777777777777
1.7777777777777777
1.7777777777777777
1.7777777777777777
1.7777777777777777
1.7777777777777777
1.7777777777777777
1.7777777777777777
1.7777777777777777
1.7777777777777777
1.7777777777777777
1.7777777777777777
1.7777777777777777
1.7777777777777777
1.7777777777777777
1.7777777777777777
1.7777777777777777
1.7777777777777777
1.7777777777777777
1.7777777777777777
1.7777777777777777
1.7777777777777777
1.7777777777777777
1.7777777777777777
1.7777777777777777
1.7777777777777777
1.7777777777777777
1.7777777777777777
1.7777777777777777
1.7777777777777777
1.7777777777777777
1.7777777777777777
1.7777777777777777
1.7777777777777777
1.7777777777777777
1.7777777777777777
1.7777777777777777
1.7777777777777777
1.7777777777777777
1.7777777777777777
1.7777777777777777
1.7777777777777777
1.7777777777777777
1.7777777777777777
1.7777777777777777
1.7777777777777777
1.7777777777777777
1.7777777777777777
1.7777777777777777
1.7777777777777777
1.7777777777777777
1.7777777777777777
1.7777777777777777
1.7777777777777777
1.7777777777777777
1.7777777777777777
1.7777777777777777
1.7777777777777777
1.7777777777777777
1.7777777777777777
1.7777777777777777
1.7777777777777777
1.7777777777777777
1.7777777777777777
1.7777777777777777
1.7777777777777777
1.7777777777777777
1.7777777777777777
1.7777777777777777
1.7777777777777777
1.7777777777777777
1.7777777777777777
1.7777777777777777
1.7777777777777777
1.7777777777777777
1.7777777777777777
1.7777777777777777
1.7777777777777777
1.7777777777777777
1.7777777777777777
1.7777777777777777
1.7777777777777777
1.7777777777777777
1.7777777777777777
1.7777777777777777
1.7777777777777777
1.7777777777777777
1.7777777777777777
1.7777777777777777
1.7777777777777777
1.7777777777777777
1.7777777777777777
1.7777777777777777
1.7777777777777777
1.7777777777777777
1.7777777777777777
1.7777777777777777
1.7777777777777777
1.7777777777777777
1.7777777777777777
1.7777777777777777
1.7777777777777777
1.7777777777777777
1.7777777777777777
1.7777777777777777
1.7777777777777777
1.7777777777777777
1.7777777777777777
1.7777777777777777
1.7777777777777777
1.7777777777777777
1.7777777777777777
1.7777777777777777
1.7777777777777777
1.7777777777777777
1.7777777777777777
1.7777777777777777
1.7777777777777777
1.7777777777777777
1.7777777777777777
1.7777777777777777
1.7777777777777777
1.7777777777777777
1.7777777777777777
1.7777777777777777
1.7777777777777777
1.7777777777777777
1.7777777777777777
1.7777777777777777
1.7777777777777777
1.7777777777777777
1.7777777777777777
1.7777777777777777
1.7777777777777777
1.7777777777777777
1.7777777777777777
1.7777777777777777
1.7777777777777777
1.7777777777777777
1.7777777777777777
1.7777777777777777
1.7777777777777777
1.7777777777777777
1.7777777777777777
1.7777777777777777
1.7777777777777777
1.7777777777777777
1.7777777777777777
1.7777777777777777
1.7777777777777777
1.7777777777777777
1.7777777777777777
1.7777777777777777
1.7777777777777777
1.7777777777777777
1.7777777777777777
1.7777777777777777
1.7777777777777777
1.7777777777777777
1.7777777777777777
1.7777777777777777
1.7777777777777777
1.7777777777777777
1.7777777777777777
1.7777777777777777
1.7777777777777777
1.7777777777777777
1.7777777777777777
1.7777777777777777
1.7777777777777777
1.7777777777777777
1.7777777777777777
1.7777777777777777
1.7777777777777777
1.7777777777777777
1.7777777777777777
1.7777777777777777
1.7777777777777777
1.7777777777777777
1.7777777777777777
1.7777777777777777
1.7777777777777777
1.7777777777777777
1.7777777777777777
1.7777777777777777
1.7777777777777777
1.7777777777777777
1.7777777777777777
1.7777777777777777
1.7777777777777777
1.7777777777777777
1.7777777777777777
1.7777777777777777
1.7777777777777777
1.7777777777777777
1.7777777777777777
1.7777777777777777
1.7777777777777777
1.7777777777777777
1.7777777777777777
1.7777777777777777
1.7777777777777777
1.7777777777777777
1.7777777777777777
1.7777777777777777
1.7777777777777777
1.7777777777777777
1.7777777777777777
1.7777777777777777
1.7777777777777777
1.7777777777777777
1.7777777777777777
1.7777777777777777
1.7777777777777777
1.7777777777777777
1.7777777777777777
1.7777777777777777
1.7777777777777777
1.7777777777777777
1.7777777777777777
1.7777777777777777
1.7777777777777777
1.7777777777777777
1.7777777777777777
1.7777777777777777
1.7777777777777777
1.7777777777777777
1.7777777777777777
1.7777777777777777
1.7777777777777777
1.7777777777777777
1.7777777777777777
1.7777777777777777
1.7777777777777777
1.7777777777777777
1.7777777777777777
1.7777777777777777
1.7777777777777777
1.7777777777777777
SCALARS mom(1) float 1
LOOKUP_TABLE default
1.0
1.0
1.0
1.0
1.0
1.0
1.0
1.0
1.0
1.0
1.0
1.0
1.0
1.0
1.0
1.0
1.0
1.0
1.0
1.0
1.0
1.0
1.0
1.0
1.0
1.0
1.0
1.0
1.0
1.0
1.0
1.0
1.0
1.0
1.0
1.0
1.0
1.0
1.0
1.0
1.0
1.0
1.0
1.0
1.0
1.0
1.0
1.0
1.0
1.0
1.0
1.0
1.0
1.0
1.0
1.0
1.0
1.0
1.0
1.0
1.0
1.0
1.0
1.0
1.0
1.0
1.0
1.0
1.0
1.0
1.0
1.0
1.0
1.0
1.0
1.0
1.0
1.0
1.0
1.0
1.0
1.0
1.0
1.0
1.0
1.0
1.0
1.0
1.0
1.0
1.0
1.0
1.0
1.0
1.0
1.0
1.0
1.0
1.0
1.0
1.0
1.0
1.0
1.0
1.0
1.0
1.0
1.0
1.0
1.0
1.0
1.0
1.0
1.0
1.0
1.0
1.0
1.0
1.0
1.0
1.0
1.0
1.0
1.0
1.0
1.0
1.0
1.0
1.0
1.0
1.0
1.0
1.0
1.0
1.0
1.0
1.0
1.0
1.0
1.0
1.0
1.0
1.0
1.0
1.0
1.0
1.0
1.0
1.0
1.0
1.0
1.0
1.0
1.0
1.0
1.0
1.0
1.0
1.0
1.0
1.0
1.0
1.0
1.0
1.0
1.0
1.0
1.0
1.0
1.0
1.0
1.0
1.0
1.0
1.0
1.0
1.0
1.0
1.0
1.0
1.0
1.0
1.0
1.0
1.0
1.0
1.0
1.0
1.0
1.0
1.0
1.0
1.0
1.0
1.0
1.0
1.0
1.0
1.0
1.0
1.0
1.0
1.0
1.0
1.0
1.0
1.0
1.0
1.0
1.0
1.0
1.0
1.0
1.0
1.0
1.0
1.0
1.0
1.0
1.0
1.0
1.0
1.0
1.0
1.0
1.0
1.0
1.0
1.0
1.0
1.0
1.0
1.0
1.0
1.0
1.0
1.0
1.0
1.0
1.0
1.0
1.0
1.0
1.0
1.0
1.0
1.0
1.0
1.0
1.0
1.0
1.0
1.0
1.0
1.0
1.0
1.0
1.0
1.0
1.0
1.0
1.0
1.0
1.0
1.0
1.0
1.0
1.0
1.0
1.0
1.0
1.0
1.0
1.0
1.0
1.0
1.0
1.0
1.0
1.0
1.0
1.0
1.0
1.0
1.0
1.0
1.0
1.0
1.0
1.0
1.0
1.0
1.0
1.0
1.0
1.0
1.0
1.0
1.0
1.0
1.0
1.0
1.0
1.0
1.0
1.0
1.0
1.0
1.0
1.0
1.0
1.0
1.0
1.0
1.0
1.0
1.0
1.0
1.0
1.0
1.0
1.0
1.0
1.0
1.0
1.0
1.0
1.0
1.0
1.0
1.0
1.0
1.0
1.0
1.0
1.0
1.0
1.0
1.0
1.0
1.0
1.0
1.0
1.0
1.0
1.0
1.0
1.0
1.0
1.0
1.0
1.0
1.0
1.0
1.0
1.0
1.0
1.0
1.0
1.0
1.0
1.0
1.0
1.0
1.0
1.0
1.0
1.0
1.0
1.0
1.0
1.0
1.0
1.0
1.0
1.0
1.0
1.0
1.0
1.0
1.0
1.0
1.0
1.0
1.0
1.0
1.0
1.0
1.0
1.0
1.0
1.0
1.0
1.0
1.0
1.0
1.0
1.0
1.0
1.0
1.0
1.0
1.0
1.0
1.0
1.0
1.0
1.0
1.0
1.0
1.0
1.0
1.0
1.0
1.0
1.0
1.0
1.0
1.0
1.0
1.0
1.0
1.0
1.0
1.0
1.0
1.0
1.0
1.0
1.0
1.0
1.0
1.0
1.0
1.0
1.0
1.0
1.0
1.0
1.0
1.0
1.0
1.0
1.0
1.0
1.0
1.0
1.0
1.0
1.0
1.0
1.0
1.0
1.0
1.0
1.0
1.0
1.0
1.0
1.0
1.0
1.0
1.0
1.0
1.0
1.0
1.0
1.0
1.0
1.0
1.0
1.0
1.0
1.0
1.0
1.0
1.0
1.0
1.0
1.0
1.0
1.0
1.0
1.0
1.0
1.0
1.0
1.0
1.0
1.0
1.0
1.0
1.0
1.0
1.0
1.0
1.0
1.0
1.0
1.0
1.0
1.0
1.0
1.0
1.0
1.0
1.0
1.0
1.0
1.0
1.0
1.0
1.0
1.0
1.0
1.0
1.0
1.0
1.0
1.0
1.0
1.0
1.0
1.0
1.0
1.0
1.0
1.0
1.0
1.0
1.0
1.0
1.0
1.0
1.0
1.0
1.0
1.0
1.0
1.0
1.0
1.0
1.0
1.0
1.0
1.0
1.0
1.0
1.0
1.0
1.0
1.0
1.0
1.0
1.0
1.0
1.0
1.0
1.0
1.0
1.0
1.0
1.0
1.0
1.0
1.0
1.0
1.0
1.0
1.0
1.0
1.0
1.0
1.0
1.0
1.0
1.0
1.0
1.0
1.0
1.0
1.0
1.0
1.0
1.0
1.0
1.0
1.0
1.0
1.0
1.0
1.0
1.0
1.0
1.0
1.0
1.0
1.0
1.0
1.0
1.0
1.0
1.0
1.0
1.0
1.0
1.0
1.0
1.0
1.0
1.0
1.0
1.0
1.0
1.0
1.0
1.0
1.0
1.0
1.0
1.0
1.0
1.0
1.0
1.0
1.0
1.0
1.0
1.0
1.0
1.0
1.0
1.0
1.0
1.0
1.0
1.0
1.0
1.0
1.0
1.0
1.0
1.0
1.0
1.0
1.0
1.0
1.0
1.0
1.0
1.0
1.0
1.0
1.0
1.0
1.0
1.0
1.0
1.0
1.0
1.0
1.0
1.0
1.0
1.0
1.0
1.0
1.0
1.0
1.0
1.0
1.0
1.0
1.0
1.0
1.0
1.0
1.0
1.0
1.0
1.0
1.0
1.0
1.0
1.0
1.0
1.0
1.0
1.0
1.0
1.0
1.0
1.0
1.0
1.0
1.0
1.0
1.0
1.0
1.0
1.0
1.0
1.0
1.0
1.0
1.0
1.0
1.0
1.0
1.0
1.0
1.0
1.0
1.0
1.0
1.0
1.0
1.0
1.0
1.0
1.0
1.0
1.0
1.0
1.0
1.0
1.0
1.0
1.0
1.0
1.0
1.0
1.0
1.0
1.0
1.0
1.0
1.0
1.0
1.0
1.0
1.0
1.0
1.0
1.0
1.0
1.0
1.0
1.0
1.0
1.0
1.0
1.0
1.0
1.0
1.0
1.0
1.0
1.0
1.0
1.0
1.0
1.0
1.0
1.0
1.0
1.0
1.0
1.0
1.0
1.0
1.0
1.0
1.0
1.0
1.0
1.0
1.0
1.0
1.0
1.0
1.0
1.0
1.0
1.0
1.0
1.0
1.0
1.0
1.0
1.0
1.0
1.0
1.0
1.0
1.0
1.0
1.0
1.0
1.0
1.0
1.0
1.0
1.0
1.0
1.0
1.0
1.0
1.0
1.0
1.0
1.0
1.0
1.0
1.0
1.0
1.0
1.0
1.0
1.0
1.0
1.0
1.0
1.0
1.0
1.0
1.0
1.0
1.0
1.0
1.0
1.0
1.0
1.0
1.0
1.0
1.0
1.0
1.0
1.0
1.0
1.0
1.0
1.0
1.0
1.0
1.0
1.0
1.0
1.0
1.0
1.0
1.0
1.0
1.0
1.0
1.0
1.0
1.0
1.0
1.0
1.0
1.0
1.0
1.0
1.0
1.0
1.0
1.0
1.0
1.0
1.0
1.0
1.0
1.0
1.0
1.0
1.0
1.0
1.0
1.0
1.0
1.0
1.0
1.0
1.0
1.0
1.0
1.0
1.0
1.0
1.0
1.0
1.0
1.0
1.0
1.0
1.0
1.0
1.0
1.0
1.0
1.0
1.0
1.0
1.0
1.0
1.0
1.0
1.0
1.0
1.0
1.0
1.0
1.0
1.0
1.0
1.0
1.0
1.0
1.0
1.0
1.0
1.0
1.0
1.0
1.0
1.0
1.0
1.0
1.0
1.0
1.0
1.0
1.0
1.0
1.0
1.0
1.0
1.0
1.0
1.0
1.0
1.0
1.0
1.0
1.0
1.0
1.0
1.0
1.0
1.0
1.0
1.0
1.0
1.0
1.0
1.0
1.0
1.0
1.0
1.0
1.0
1.0
1.0
1.0
1.0
1.0
1.0
1.0
1.0
1.0
1.0
1.0
1.0
1.0
1.0
1.0
1.0
1.0
1.0
1.0
1.0
1.0
1.0
1.0
1.0
1.0
1.0
1.0
1.0
1.0
1.0
1.0
1.0
1.0
1.0
1.0
1.0
1.0
1.0
1.0
1.0
1.0
1.0
1.0
1.0
1.0
1.0
1.0
1.0
1.0
1.0
1.0
1.0
1.0
1.0
1.0
1.0
1.0
1.0
1.0
1.0
1.0
SCALARS p_ float 1
LOOKUP_TABLE default
1.0000399999999998
1.0000442099545128
1.00005438494804
1.0000703471272345
1.000091920345088
1.000118930160932
1.0001512038404363
1.0001885703556108
1.0002308603848036
1.0002779063127032
1.000329542230336
1.0003856039350678
1.0004459289306045
1.0005103564269904
1.0005787273406086
1.0006508842941817
1.0007266716167718
1.00080593534378
1.0008885232169464
1.0009742846843501
1.0010630709004094
1.001154734725882
1.0012491307278646
1.0013461151797935
1.001445546061443
1.0015472830589278
1.0016511875647014
1.0017571226775557
1.0018649532026225
1.0019745456513731
1.0020857682416167
1.002198490897503
1.0023125852495198
1.0024279246344951
1.0025443840955948
1.0026618403823249
1.0027801719505298
1.0028992589623944
1.0030189832864411
1.0031392284975325
1.00325987987687
1.0033808244119942
1.0035019507967848
1.0036231494314611
1.0037443124225809
1.003865333583041
1.0039861084320783
1.0041065341952682
1.0042265098045253
1.0043459358981033
1.0044647148205952
1.0045827506229337
1.0046999490623891
1.0048162176025728
1.0049314654134336
1.0050456033712605
1.0051585440586814
1.0052702017646635
1.0053804924845129
1.0054893339198747
1.0055966454787337
1.0057023482754133
1.0058063651305766
1.0059086205712249
1.0060090408306999
1.0061075538486817
1.0062040892711899
1.0062985784505822
1.0063909544455574
1.0064811520211516
1.0065691076487413
1.0066547595060413
1.0067380474771057
1.0068189131523284
1.006897299828442
1.0069731525085182
1.0070464179019676
1.0071170444245405
1.0071849821983263
1.0072501830517528
1.0073126005195885
1.0073721898429389
1.0074289079692504
1.0074827135523083
1.0075335669522363
1.0075814302354975
1.0076262671748948
1.007668043249569
1.007706725645002
1.0077422832530125
1.0077746866717607
1.0078039082057435
1.0078299218657993
1.007852703369104
1.0078722301391738
1.0078884813058626
1.0079014377053652
1.0079110818802137
1.0079173980792815
1.0079203722577796
1.007919992077258
1.0079162469056069
1.0079091278170553
1.0078986275921706
1.0078847407178606
1.0078674633873712
1.007846793500288
1.0078227306625354
1.0077952761863775
1.0077644330904167
1.0077302060995956
1.0076926016451955
1.0076516278648362
1.0076072946024772
1.007559613408418
1.0075085975392954
1.0074542619580873
1.0073966233341087
1.0073357000430159
1.007271512166803
1.0072040814938035
1.0071334315186902
1.0070595874424746
1.0069825761725082
1.006902426322481
1.0068191682124228
1.0067328338687012
1.0066434570240244
1.0065510731174392
1.006455719294331
1.0063574344064259
1.0062562590117872
1.0061522353748185
1.0060454074662624
1.005935820963201
1.0058235232490547
1.0057085634135836
1.0055909922528867
1.0054708622694029
1.005348227671909
1.0052231443755217
1.005095670001697
1.0049658638782293
1.0048337870392534
1.0046995022252423
1.0045630738830083
1.0044245681657022
1.0042840529328156
1.0041415977501784
1.0039972738899587
1.0038511543306652
1.0037033137571454
1.0035538285605852
1.0034027768385099
1.0032502383947852
1.0030962947396143
1.0029410290895404
1.0027845263674457
1.0026268732025514
1.0024681579304184
1.0023084705929457
1.0021479029383724
1.0019865484212764
1.0018245022025751
1.0016618611495245
1.0014987238357196
1.0013351905410954
1.0011713632519257
1.001007345660823
1.0008432431667393
1.0006791628749663
1.0005152135971334
1.000351505851211
1.000188151861507
1.0000252655586692
0.9998629625796847
0.9997013602678804
0.9995405776729198
0.9993807355508082
0.9992219563638889
0.9990643642808452
0.9989080851766987
0.9987532466328091
0.9985999779368777
0.9984484100829443
0.9982986757713865
0.9981509094089214
0.9980052471086065
0.9978618266898369
0.9977207876783494
0.9975822713062161
0.9974464205118512
0.9973133799400076
0.9971832959417766
0.9970563165745885
0.9969325916022136
0.9968122724947612
0.9966955124286789
0.9965824662867551
0.9964732906581162
0.9963681438382261
0.9962671858288923
0.9961705783382566
0.9960784847808037
0.9959910702773556
0.9959085016550722
0.9958309474474563
0.9957585778943461
0.9956915649419216
0.9956300822427
0.9955743051555395
0.9955244107456345
0.995480577784523
0.9954429867500778
0.995411819826514
0.9953872609043835
0.9953694955805785
0.9953587111583309
0.9953550966472111
0.9953588427631281
0.9953701419283316
0.9953891882714085
0.9954161776272858
0.9954513075372304
0.9954947772488465
0.99554678771608
0.995607541599214
0.9956772432648711
0.9957560987860132
0.995844315941941
0.9959421042182957
0.9960496748070558
0.9961672406065407
0.9962950162214073
0.9964332179626529
0.9965820638476135
0.9967417735999637
0.9969125686497184
0.9970946721332314
0.9972883088931939
0.9974937054786386
0.9977110901449366
0.9979406928537982
0.9981827452732714
0.9984374807777447
0.9987051344479472
0.9989859430709442
0.9992801451401414
0.9995879808552841
0.9999096921224568
1.0002455225540827
1.000595717468924
1.0009605238920818
1.0013401905549975
1.0017349678954508
1.0021451080575603
1.0025708648917848
1.0030124939549214
1.0034702525101062
1.0039443995268158
1.004435195680864
1.0049429033544048
1.0054677866359323
1.0060101113202773
1.0065701449086122
1.007148156608447
1.0077444173336318
1.0083591997043553
1.0089927780471455
1.0096454283948693
1.0103174284867333
1.011009057768283
1.011720597391403
1.0124523302143165
1.0132045408015866
1.013977515424116
1.0147715420591452
1.015586910390255
1.0164239118073648
1.0172828394067328
1.0181639879909574
1.0190676540689756
1.019994135856063
1.0209437332738354
1.0219167479502467
1.0229134832195905
1.0239342441225001
1.0249793374059468
1.026049071523242
1.0271437566340356
1.028263704604317
1.029409229006415
1.0305806451189965
1.0317782699270692
1.0330024221219785
1.034253422101409
1.0355315919693862
1.0368372555362724
1.0381707383187702
1.039532367539922
1.040922472129108
1.0423413827220482
1.0437894316608025
1.0452669529937682
1.0467742824756834
1.0483117575676246
1.0498797174370074
1.0514785029575866
1.0531084567094564
1.05476992297905
1.0564632477591398
1.0581887787488373
1.0599468653535933
1.061737858685197
1.0635621115617782
1.0654199785078045
1.067311815754083
1.0692379812377606
1.0711988346023227
1.073194737197594
1.0752260520797385
1.077293144011259
1.0793963794609973
1.0815361266041355
1.083712755322194
1.0859266372030318
1.088178145540848
1.0904676553361807
1.0927955432959067
1.0951621878332425
1.0975679690677436